
 Primary working directories    : /lustre/work_dir/zxqu
 Secondary working directories  : /lustre/work_dir/zxqu
 Wavefunction directory         : /home/zxqu/wfu/
 Main file repository           : /lustre/work_dir/zxqu/

 ARCHNAME  : Linux/x86_64
 FC        : /opt/intel/compilerpro-12.0.2.137/bin/intel64/ifort
 FCVERSION : 12.0.2
 BLASLIB   : 
 id        : chen

 Nodes     nprocs
 cu24         1
 ga_uses_ma=false, calling ma_init with nominal heap.
 GA-space will be limited to   8.0 MW (determined by -G option)

 Using customized tuning parameters: mindgm=4; mindgv=4; mindgc=1; mindgr=1; noblas=0; mincuda=1000; minvec=7
 default implementation of scratch files=df  

 ***,tetrahedrane
 memory,2048,m
 geometry={
  C          0.8549949462        0.6742945615        0.0000000000
  C          0.8549949462       -0.6742945615        0.0000000000
  C         -0.8549949462       -0.6742945615        0.0000000000
  C         -0.8549949462        0.6742945615        0.0000000000
  H          1.3942129670        1.5925682845       -0.0000003501
  H          1.3942129670       -1.5925682845        0.0000003501
  H         -1.3942129670       -1.5925682845       -0.0000003501
  H         -1.3942129670        1.5925682845        0.0000003501
}
 gprint,orbital
 basis=6-31g(d)
 hf
  
 {merge;
 orbital,2100.2;
 move;
 rotate,2.1,3.1,0;
 save,2100.2}
  
 {multi;
 occ,5,5,5,5;
 closed,2,2,2,2;
 wf,28,1,0;
 state,2;
 CPMCSCF,GRAD,2.1,spin=0,accu=1.0d-7,record=5101.1;
 }
  
 {force
 SAMC,5101.1
 }
  
 {frequencies;
 print,hessian;
 }

 Variables initialized (660), CPU time= 0.00 sec
 Commands  initialized (462), CPU time= 0.01 sec, 486 directives.
 Default parameters read. Elapsed time= 0.04 sec

 Checking input...
 Passed
1


                                         ***  PROGRAM SYSTEM MOLPRO  ***
                         Copyright, University College Cardiff Consultants Limited, 2008

                                    Version 2010.1 linked 15 Sep 2011 12:01:52


 **********************************************************************************************************************************
 LABEL *   tetrahedrane                                                                  
 Linux-2.6.32-279.el6.x86_64/cu24(x86_64) 64 bit mpp version                             DATE: 16-Sep-13          TIME: 17:12:07  
 **********************************************************************************************************************************

 SHA1:             c82fc9886d3ef081defdb91dc08d0bb97a8ad3e0
 **********************************************************************************************************************************

Geometry recognized as XYZ



 Variable memory set to 2048000000 words,  buffer space   230000 words

 SETTING BASIS          =    6-31G(D)


 Recomputing integrals since basis changed


 Using spherical harmonics

 Library entry C      S 6-31G                selected for orbital group  1
 Library entry C      P 6-31G                selected for orbital group  1
 Library entry C      D 6-31G*               selected for orbital group  1
 Library entry H      S 6-31G                selected for orbital group  2

1PROGRAM * SEWARD (Integral evaluation for generally contracted gaussian basis sets)     Author: Roland Lindh, 1990

 Geometry written to block  1 of record 700


 Point group  D2  



 ATOMIC COORDINATES

 NR  ATOM    CHARGE       X              Y              Z

   1  C       6.00    1.615706292    1.274232053    0.000000000
   2  C       6.00    1.615706292   -1.274232053    0.000000000
   3  C       6.00   -1.615706292   -1.274232053    0.000000000
   4  C       6.00   -1.615706292    1.274232053    0.000000000
   5  H       1.00    2.634680677    3.009517903   -0.000000662
   6  H       1.00    2.634680677   -3.009517903    0.000000662
   7  H       1.00   -2.634680677   -3.009517903   -0.000000662
   8  H       1.00   -2.634680677    3.009517903    0.000000662

 Bond lengths in Bohr (Angstrom)

 1-2  2.548464106  1-4  3.231412584  1-5  2.012343355  2-3  3.231412584  2-6  2.012343355
     ( 1.348589123)     ( 1.709989892)     ( 1.064886240)     ( 1.709989892)     ( 1.064886240)

 3-4  2.548464106  3-7  2.012343355  4-8  2.012343355
     ( 1.348589123)     ( 1.064886240)     ( 1.064886240)

 Bond angles

  1-2-3   90.00000000   1-2-6  149.57818734   1-4-3   90.00000000   1-4-8  120.42181266

  2-1-4   90.00000000   2-1-5  149.57818734   2-3-4   90.00000000   2-3-7  120.42181266

  3-2-6  120.42181266   3-4-8  149.57818734   4-1-5  120.42181266   4-3-7  149.57818734

 NUCLEAR CHARGE:                   28
 NUMBER OF PRIMITIVE AOS:         128
 NUMBER OF SYMMETRY AOS:          124
 NUMBER OF CONTRACTIONS:           64   (  16A   +  16B3  +  16B2  +  16B1  )
 NUMBER OF CORE ORBITALS:           4   (   1A   +   1B3  +   1B2  +   1B1  )
 NUMBER OF VALENCE ORBITALS:       20   (   5A   +   5B3  +   5B2  +   5B1  )


 NUCLEAR REPULSION ENERGY   95.57220668


 Eigenvalues of metric

         1 0.387E-01 0.150E+00 0.178E+00 0.326E+00 0.413E+00 0.563E+00 0.568E+00 0.808E+00
         2 0.188E-01 0.293E-01 0.209E+00 0.304E+00 0.321E+00 0.519E+00 0.592E+00 0.599E+00
         3 0.605E-02 0.331E-01 0.180E+00 0.240E+00 0.305E+00 0.376E+00 0.515E+00 0.682E+00
         4 0.780E-03 0.272E-01 0.439E-01 0.193E+00 0.260E+00 0.448E+00 0.517E+00 0.539E+00


 Contracted 2-electron integrals neglected if value below      1.0D-11
 AO integral compression algorithm  1   Integral accuracy      1.0D-11

     3.408 MB (compressed) written to integral file ( 39.3%)

     Node minimum: 3.408 MB, node maximum: 3.408 MB


 NUMBER OF SORTED TWO-ELECTRON INTEGRALS:     566800.     BUFFER LENGTH:  32768
 NUMBER OF SEGMENTS:   1  SEGMENT LENGTH:     566800      RECORD LENGTH: 524288

 Memory used in sort:       1.12 MW

 SORT1 READ     1156672. AND WROTE      404202. INTEGRALS IN      2 RECORDS. CPU TIME:     0.01 SEC, REAL TIME:     0.03 SEC
 SORT2 READ      404202. AND WROTE      566800. INTEGRALS IN     13 RECORDS. CPU TIME:     0.03 SEC, REAL TIME:     0.06 SEC

 FILE SIZES:   FILE 1:     4.5 MBYTE,  FILE 4:     8.4 MBYTE,   TOTAL:     12.9 MBYTE

 OPERATOR DM      FOR CENTER  0  COORDINATES:    0.000000    0.000000    0.000000


 **********************************************************************************************************************************
 DATASETS  * FILE   NREC   LENGTH (MB)   RECORD NAMES
              1      19        4.51       500      610      700      900      950      970     1000      129      960     1100   
                                          VAR    BASINP    GEOM    SYMINP    ZMAT    AOBASIS   BASIS     P2S    ABASIS      S 
                                         1400     1410     1200     1210     1080     1600     1650     1300     1700   
                                           T        V       H0       H01     AOSYM     SMH    MOLCAS    ERIS     OPER   

 PROGRAMS   *        TOTAL       INT
 CPU TIMES  *         0.40      0.34
 REAL TIME  *         0.60 SEC
 DISK USED  *        17.03 MB      
 GA USED    *         0.00 MB       (max)       0.00 MB       (current)
 **********************************************************************************************************************************

1PROGRAM * RHF-SCF (CLOSED SHELL)       Authors: W. Meyer, H.-J. Werner


 NUMBER OF ELECTRONS:      14+   14-
 CONVERGENCE THRESHOLDS:    1.00E-06 (Density)    1.00E-07 (Energy)
 MAX. NUMBER OF ITERATIONS:       60
 INTERPOLATION TYPE:            DIIS
 INTERPOLATION STEPS:              2 (START)      1 (STEP)
 LEVEL SHIFTS:                  0.00 (CLOSED)  0.00 (OPEN) 



 Orbital guess generated from atomic densities. Full valence occupancy:    6   6   6   6

 Molecular orbital dump at record        2100.2

 Initial alpha occupancy:   4   3   4   3
 Initial beta  occupancy:   4   3   4   3
 Wave function symmetry:    1

 ITERATION    DDIFF          GRAD             ENERGY        2-EL.EN.            DIPOLE MOMENTS         DIIS
    1      0.000D+00      0.000D+00      -153.57024787    293.472394    0.00000    0.00000    0.00000    0
    2      0.000D+00      0.113D-01      -153.59479696    292.031710    0.00000    0.00000    0.00000    1
    3      0.132D-01      0.319D-02      -153.59665659    292.770973    0.00000    0.00000    0.00000    2
    4      0.445D-02      0.107D-02      -153.59687016    292.547798    0.00000    0.00000    0.00000    3
    5      0.144D-02      0.124D-03      -153.59687532    292.560075    0.00000    0.00000    0.00000    4
    6      0.376D-03      0.298D-04      -153.59687561    292.558460    0.00000    0.00000    0.00000    5
    7      0.107D-03      0.348D-05      -153.59687562    292.558294    0.00000    0.00000    0.00000    6
    8      0.146D-04      0.604D-06      -153.59687562    292.558304    0.00000    0.00000    0.00000    6
    9      0.257D-05      0.138D-06      -153.59687562    292.558294    0.00000    0.00000    0.00000    5
   10      0.388D-06      0.274D-07      -153.59687562    292.558299    0.00000    0.00000    0.00000    0

 Final occupancy:   4   3   4   3

 !RHF STATE 1.1 Energy               -153.596875619824
 Nuclear energy                        95.57220668
 One-electron energy                 -395.44823164
 Two-electron energy                  146.27914934
 Virial quotient                       -1.00252877
 !RHF STATE 1.1 Dipole moment           0.00000000     0.00000000     0.00000000
 Dipole moment /Debye                   0.00000000     0.00000000     0.00000000

 ELECTRON ORBITALS
 =================


   Orb  Occ    Energy  Couls-En    Coefficients

                                   1 1s      1 1s      1 1s      1 2px     1 2py     1 2pz     1 2px     1 2py     1 2pz     1 3d0  
                                   1 3d2+    1 3d1-    1 3d1+    1 3d2-    2 1s      2 1s   

   1.1   2   -11.2500  -35.9569  0.995925  0.022639 -0.006072 -0.000301  0.000319  0.000000  0.000141 -0.000251  0.000000 -0.000016
                                -0.000625  0.000000  0.000000  0.000285 -0.000956  0.001975

   2.1   2    -1.1069  -12.5617 -0.221340  0.425062  0.292934 -0.093700 -0.167548  0.000000 -0.018854 -0.011989  0.000000 -0.025802
                                -0.006464  0.000000  0.000000  0.010420  0.080998  0.004469

   3.1   2    -0.6845  -10.0500 -0.028594  0.064288  0.108400  0.235536  0.437380  0.000000  0.082063  0.144649  0.000000 -0.003877
                                -0.006052  0.000000  0.000000  0.007288  0.297730  0.183502

   4.1   2    -0.5081  -10.8926 -0.018372  0.050995 -0.006075  0.501075 -0.337999  0.000000  0.258403 -0.151701  0.000000  0.008025
                                -0.035145  0.000000  0.000000 -0.012565  0.014010  0.015016

                                   1 1s      1 1s      1 1s      1 2px     1 2pz     1 2py     1 2px     1 2pz     1 2py     1 3d1- 
                                   1 3d0     1 3d2+    1 3d2-    1 3d1+    2 1s      2 1s   

   1.2   2   -11.2497  -35.9568  0.996047  0.023468 -0.011422  0.000043  0.000000  0.000214  0.002532  0.000000 -0.000805  0.000000
                                -0.000200 -0.000269  0.000254  0.000000 -0.000542  0.002217

   2.2   2    -0.9109  -11.4457 -0.220665  0.434170  0.387783  0.147510  0.000000 -0.170686  0.039387  0.000000 -0.004814  0.000000
                                -0.014054 -0.034667  0.004191  0.000000  0.151068  0.036357

   3.2   2    -0.5930  -10.2788  0.022928 -0.043150 -0.014420  0.103987  0.000000  0.558506  0.042682  0.000000  0.205706  0.000000
                                -0.005526  0.012728  0.029483  0.000000  0.294146  0.214760

                                   1 1s      1 1s      1 1s      1 2py     1 2pz     1 2px     1 2py     1 2pz     1 2px     1 3d1+ 
                                   1 3d2-    1 3d0     1 3d2+    1 3d1-    2 1s      2 1s   

   1.3   2   -11.2485  -35.9561  0.996404  0.024913 -0.015826 -0.000992  0.000000 -0.000464  0.004820  0.000000  0.000519  0.000000
                                 0.000343 -0.000666 -0.001336  0.000000 -0.000944  0.001226

   2.3   2    -0.8203  -10.3218 -0.177416  0.354082  0.357232  0.250021  0.000000 -0.033567  0.086481  0.000000 -0.015021  0.000000
                                 0.015226 -0.023359  0.007922  0.000000  0.244058  0.101098

   3.3   2    -0.3743  -10.1349  0.060532 -0.115418 -0.306190  0.052133  0.000000  0.551682  0.005967  0.000000  0.393050  0.000000
                                 0.042904  0.002244 -0.046347  0.000000  0.234398  0.288686

   4.3   2    -0.2896   -9.8623  0.000000  0.000000  0.000000  0.000000  0.578000  0.000000  0.000000  0.523678  0.000000  0.020469
                                 0.000000  0.000000  0.000000 -0.040174  0.000000  0.000000

                                   1 1s      1 1s      1 1s      1 2pz     1 2py     1 2px     1 2pz     1 2py     1 2px     1 3d2- 
                                   1 3d1+    1 3d1-    1 3d0     1 3d2+    2 1s      2 1s   

   1.4   2   -11.2482  -35.9560  0.996611  0.026172 -0.034106  0.000000 -0.000923 -0.000231  0.000000  0.011557  0.007260  0.000714
                                 0.000000  0.000000 -0.000706 -0.000804 -0.000844 -0.000615

   2.4   2    -0.7154   -9.5735 -0.150215  0.311053  0.190266  0.000000  0.258588  0.160856  0.000000  0.193936  0.119591  0.033141
                                 0.000000  0.000000 -0.014723 -0.017223  0.311824  0.135801

   3.4   2    -0.4456  -10.2220  0.000000  0.000000  0.000000  0.517974  0.000000  0.000000  0.361414  0.000000  0.000000  0.000000
                                -0.012791 -0.038222  0.000000  0.000000  0.000000  0.000000


 **********************************************************************************************************************************
 DATASETS  * FILE   NREC   LENGTH (MB)   RECORD NAMES
              1      19        4.51       500      610      700      900      950      970     1000      129      960     1100   
                                          VAR    BASINP    GEOM    SYMINP    ZMAT    AOBASIS   BASIS     P2S    ABASIS      S 
                                         1400     1410     1200     1210     1080     1600     1650     1300     1700   
                                           T        V       H0       H01     AOSYM     SMH    MOLCAS    ERIS     OPER   

              2       3        0.41       700     1000     2100   
                                         GEOM     BASIS     RHF  

 PROGRAMS   *        TOTAL        HF       INT
 CPU TIMES  *         0.47      0.06      0.34
 REAL TIME  *         0.73 SEC
 DISK USED  *        17.03 MB      
 GA USED    *         0.00 MB       (max)       0.00 MB       (current)
 **********************************************************************************************************************************


 PROGRAM * MERGE   Author: H.-J. Werner

 
 Molecular orbitals read from record     2100.2  Type=RHF/CANONICAL (state 1.1)
 

 All orbitals from record   2100.2moved.
 
 ROTATION OF ORBITALS   2.1    3.1       90.00 DEGREES

 Merged orbitals written to record       2100.2


 **********************************************************************************************************************************
 DATASETS  * FILE   NREC   LENGTH (MB)   RECORD NAMES
              1      19        4.51       500      610      700      900      950      970     1000      129      960     1100   
                                          VAR    BASINP    GEOM    SYMINP    ZMAT    AOBASIS   BASIS     P2S    ABASIS      S 
                                         1400     1410     1200     1210     1080     1600     1650     1300     1700   
                                           T        V       H0       H01     AOSYM     SMH    MOLCAS    ERIS     OPER   

              2       3        0.41       700     1000     2100   
                                         GEOM     BASIS    MERGE   

 PROGRAMS   *        TOTAL     MERGE        HF       INT
 CPU TIMES  *         0.48      0.01      0.06      0.34
 REAL TIME  *         0.77 SEC
 DISK USED  *        17.03 MB      
 GA USED    *         0.00 MB       (max)       0.00 MB       (current)
 **********************************************************************************************************************************

1PROGRAM * MULTI (Direct Multiconfiguration SCF)       Authors: P.J. Knowles, H.-J. Werner (1984)     S.T. Elbert (1988)


 Number of closed-shell orbitals:  8 (  2  2  2  2 )
 Number of active  orbitals:      12 (  3  3  3  3 )
 Number of external orbitals:     44 ( 11 11 11 11 )

 State symmetry 1

 Number of electrons:    12    Spin symmetry=Singlet   Space symmetry=1
 Number of states:        2
 Number of CSFs:      56928   (213744 determinants, 853776 intermediate states)

 Molecular orbitals read from record     2100.2  Type=MERGE/CANONICAL (state 1.1)

 Wavefunction dump at record             2140.2

 Convergence thresholds  0.10E-05 (gradient)  0.10E-07 (energy)  0.10E-02 (step length)

 Weight factors for state symmetry  1:    0.50000   0.50000

 Number of orbital rotations:     244     (  24 Core/Active   88 Core/Virtual   0 Active/Active  132 Active/Virtual)
 Total number of variables:    427732


 ITER. MIC  NCI  NEG     ENERGY(VAR)     ENERGY(PROJ)   ENERGY CHANGE     GRAD(0)  GRAD(ORB)   GRAD(CI)     STEP       TIME

   1   50   33    0    -153.56630962    -153.65632569   -0.09001607    0.14471954 0.00009387 0.00297105  0.15D+01     21.00
   2   42   45    0    -153.67341198    -153.67481464   -0.00140266    0.04645562 0.00000072 0.00001963  0.12D+00     53.38
   3   30   32    0    -153.67481815    -153.67481821   -0.00000006    0.00028794 0.00000000 0.00000006  0.11D-02     77.93
   4   22   11    0    -153.67481821    -153.67481821    0.00000000    0.00000002 0.00000000 0.00000001  0.73D-07     87.64

 ** WVFN ****  CONVERGENCE REACHED, FINAL GRADIENT:  0.83D-10

 Solving MCSCF z-vector equations for state  2.1, requested accuracy=      0.10D-06
 Convergence reached in  22 iterations ( 22 expansion vectors), accuracy=  0.85D-07

 SA-Gradient information saved on record      5101.1



 Results for state 1.1
 =====================

 !MCSCF STATE 1.1 Energy             -153.780915945345
 Nuclear energy                        95.57220668
 Kinetic energy                       153.78058706
 One electron energy                 -395.82475440
 Two electron energy                  146.47163177
 Virial ratio                           2.00000214

 !MCSCF STATE 1.1 Dipole moment         0.00000000     0.00000000     0.00000000
 Dipole moment /Debye                   0.00000000     0.00000000     0.00000000

 Results for state 2.1
 =====================

 !MCSCF STATE 2.1 Energy             -153.568720464994
 Nuclear energy                        95.57220668
 Kinetic energy                       153.92811714
 One electron energy                 -395.15513351
 Two electron energy                  146.01420636
 Virial ratio                           1.99766517

 !MCSCF STATE 2.1 Dipole moment         0.00000000     0.00000000     0.00000000
 Dipole moment /Debye                   0.00000000     0.00000000     0.00000000

 State-averaged charge density matrix saved on record  2140.2 (density set 1)


 NATURAL ORBITALS                                        
 ================                                        

   Orb     Occ        Energy       Coefficients

                                   1 1s      1 1s      1 1s      1 2px     1 2py     1 2pz     1 2px     1 2py     1 2pz     1 3d0  
                                   1 3d2+    1 3d1-    1 3d1+    1 3d2-    2 1s      2 1s   

   1.1  2.00000   -11.225199     0.996306  0.022209 -0.006608  0.000718  0.000560  0.000000  0.000459  0.000058  0.000000  0.000062
                                -0.000576  0.000000  0.000000  0.000267 -0.000829  0.002044

   2.1  2.00000    -0.761374    -0.127185  0.248717  0.232709  0.190232  0.291841  0.000000  0.078860  0.115668  0.000000 -0.014265
                                -0.007530  0.000000  0.000000  0.010537  0.301318  0.169076

   3.1  1.98496    -0.985851     0.180010 -0.357082 -0.197888  0.077301  0.421771  0.000000 -0.000509  0.102458  0.000000  0.019103
                                 0.011375  0.000000  0.000000 -0.001958  0.062946  0.079281

   4.1  1.95312    -0.522501     0.026856 -0.042768 -0.049815  0.533333 -0.274950  0.000000  0.253270 -0.121639  0.000000  0.007849
                                -0.029503  0.000000  0.000000 -0.019441  0.009322  0.011275

   5.1  0.13936     0.289264     0.000000  0.000000  0.000000  0.000000  0.000000  0.857608  0.000000  0.000000  0.634013  0.000000
                                 0.000000  0.010289  0.001150  0.000000  0.000000  0.000000

                                   1 1s      1 1s      1 1s      1 2px     1 2pz     1 2py     1 2px     1 2pz     1 2py     1 3d1- 
                                   1 3d0     1 3d2+    1 3d2-    1 3d1+    2 1s      2 1s   

   1.2  2.00000   -11.224936     0.996165  0.023722 -0.011930  0.000196  0.000000  0.000246  0.002899  0.000000 -0.000019  0.000000
                                -0.000177 -0.000193  0.000246  0.000000 -0.000531  0.001957

   2.2  2.00000    -0.726028    -0.130876  0.259621  0.237317  0.179701  0.000000  0.290541  0.072728  0.000000  0.149439  0.000000
                                -0.013415 -0.011918  0.024182  0.000000  0.318673  0.185609

   3.2  1.98028    -0.761031     0.176135 -0.360289 -0.276790 -0.045566  0.000000  0.509634 -0.007516  0.000000  0.131158  0.000000
                                 0.008486  0.034327  0.018912  0.000000  0.086487  0.121887

   4.2  0.94273    -0.002472     0.000000  0.000000  0.000000  0.000000  0.619534  0.000000  0.000000  0.689154  0.000000  0.022546
                                 0.000000  0.000000  0.000000 -0.016612  0.000000  0.000000

   5.2  0.06117     0.370102     0.118477 -0.392770 -0.466648  0.874515  0.000000 -0.211554  0.353757  0.000000 -0.081744  0.000000
                                -0.015797 -0.034550 -0.004329  0.000000  0.039587  0.056650

                                   1 1s      1 1s      1 1s      1 2py     1 2pz     1 2px     1 2py     1 2pz     1 2px     1 3d1+ 
                                   1 3d2-    1 3d0     1 3d2+    1 3d1-    2 1s      2 1s   

   1.3  2.00000   -11.223936     0.996542  0.024892 -0.016313 -0.001578  0.000000  0.000757  0.004535  0.000000  0.000985  0.000000
                                 0.000386 -0.000678 -0.001576  0.000000 -0.000706  0.001777

   2.3  2.00000    -0.750327    -0.143128  0.277987  0.249828  0.245087  0.000000  0.176734  0.069493  0.000000  0.134633  0.000000
                                 0.029751 -0.018693 -0.007967  0.000000  0.311375  0.203382

   3.3  1.94082    -0.415145     0.120966 -0.248884 -0.428217 -0.044052  0.000000  0.538499  0.002549  0.000000  0.362668  0.000000
                                 0.029013  0.004142 -0.040968  0.000000  0.123019  0.211604

   4.3  1.06881    -0.151407     0.000000  0.000000  0.000000  0.000000  0.619846  0.000000  0.000000  0.478591  0.000000  0.015136
                                 0.000000  0.000000  0.000000 -0.032773  0.000000  0.000000

   5.3  0.01937     0.805319     0.157440 -0.854526 -0.638974  1.032973  0.000000 -0.312138  0.373401  0.000000 -0.051071  0.000000
                                 0.037072 -0.024771  0.065410  0.000000  0.094480  0.028406

                                   1 1s      1 1s      1 1s      1 2pz     1 2py     1 2px     1 2pz     1 2py     1 2px     1 3d2- 
                                   1 3d1+    1 3d1-    1 3d0     1 3d2+    2 1s      2 1s   

   1.4  2.00000   -11.223641     0.996534  0.026713 -0.034404  0.000000 -0.001430 -0.000034  0.000000  0.011827  0.007188  0.000701
                                 0.000000  0.000000 -0.000751 -0.000957 -0.000862 -0.000637

   2.4  2.00000    -0.705284    -0.149936  0.304729  0.207029  0.000000  0.252492  0.164625  0.000000  0.176005  0.131535  0.032778
                                 0.000000  0.000000 -0.013401 -0.015095  0.311658  0.142955

   3.4  1.84990    -0.411586     0.000000  0.000000  0.000000  0.538847  0.000000  0.000000  0.347337  0.000000  0.000000  0.000000
                                -0.015619 -0.029288  0.000000  0.000000  0.000000  0.000000

   4.4  0.04137     0.606209     0.144609 -0.488531 -1.127742  0.000000 -0.145157  0.958270  0.000000  0.301255  0.645210  0.025713
                                 0.000000  0.000000 -0.011060 -0.054544  0.092714 -0.009067

   5.4  0.01813     0.875524     0.170073 -0.856182 -1.260147  0.000000  1.060623 -0.265405  0.000000  0.733987  0.182923  0.042524
                                 0.000000  0.000000 -0.013313  0.060570  0.108029 -0.063988
 

 Natural orbital dump (state averaged) at molpro section   2140.2    (Orbital set 2)



 **********************************************************************************************************************************
 DATASETS  * FILE   NREC   LENGTH (MB)   RECORD NAMES
              1      21        7.15       500      610      700      900      950      970     1000      129      960     1100   
                                          VAR    BASINP    GEOM    SYMINP    ZMAT    AOBASIS   BASIS     P2S    ABASIS      S 
                                         1400     1410     1200     1210     1080     1600     1650     1300     1700     1380   
                                           T        V       H0       H01     AOSYM     SMH    MOLCAS    ERIS     OPER     JKOP   
                                         5101   
                                        CPSAMC    

              2       4        0.48       700     1000     2100     2140   
                                         GEOM     BASIS    MERGE    MCSCF   

 PROGRAMS   *        TOTAL     MULTI     MERGE        HF       INT
 CPU TIMES  *       160.25    159.76      0.01      0.06      0.34
 REAL TIME  *       169.62 SEC
 DISK USED  *       204.91 MB      
 GA USED    *         0.00 MB       (max)       0.00 MB       (current)
 **********************************************************************************************************************************

1PROGRAM * FORCE (Gradient of the energy)

 SA-MCSCF information from    5101.1
 Orbitals from record         2140.2

 Number of closed-shell orbitals:  8 (  2  2  2  2 )
 Number of active orbitals:       12 (  3  3  3  3 )
 Number of occupied orbitals:     20 (  5  5  5  5 )

 Number of electrons= 28     Singlet     Space symmetry=1      Wavefunction type: SA-MCSCF


 End of calculation of the energy gradient  ,IREST=   0


 SA-MC GRADIENT FOR STATE 2.1

 Atom          dE/dx               dE/dy               dE/dz

   1         0.148325565        -0.220369562        -0.000000007
   2         0.148325565         0.220369562         0.000000007
   3        -0.148325565         0.220369562        -0.000000007
   4        -0.148325565        -0.220369562         0.000000007
   5        -0.020176614         0.009078641         0.000000012
   6        -0.020176614        -0.009078641        -0.000000012
   7         0.020176614        -0.009078641         0.000000012
   8         0.020176614         0.009078641        -0.000000012

 Nuclear force contribution to virial =        -0.267952056


 **********************************************************************************************************************************
 DATASETS  * FILE   NREC   LENGTH (MB)   RECORD NAMES
              1      21        7.15       500      610      700      900      950      970     1000      129      960     1100   
                                          VAR    BASINP    GEOM    SYMINP    ZMAT    AOBASIS   BASIS     P2S    ABASIS      S 
                                         1400     1410     1200     1210     1080     1600     1650     1300     1700     1380   
                                           T        V       H0       H01     AOSYM     SMH    MOLCAS    ERIS     OPER     JKOP   
                                         5101   
                                        CPSAMC    

              2       4        0.48       700     1000     2100     2140   
                                         GEOM     BASIS    MERGE    MCSCF   

 PROGRAMS   *        TOTAL     FORCE     MULTI     MERGE        HF       INT
 CPU TIMES  *       160.83      0.57    159.76      0.01      0.06      0.34
 REAL TIME  *       170.24 SEC
 DISK USED  *       204.91 MB      
 GA USED    *         0.00 MB       (max)       0.00 MB       (current)
 **********************************************************************************************************************************


 PROGRAM * HESSIAN

 Computing numerical hessian using default procedure for command MULTI

 Symmetry elements for unique displacements: X  Y  Z  

 Using no symmetry in wavefunction calculations

 Running default procedure: MULTI000
 

 *** Long output written to logfile /home/zxqu/201309/0916/0916_CIa_freq.log ***


 Recomputing wavefunction at reference geometry

 Numerically approximating hessian using central gradient differences

 Task list generated. Total number of displacements:     10

    5 tasks completed, CPU= 10818.29 sec, Elapsed= 10871.98 sec
   10 tasks completed, CPU= 20945.33 sec, Elapsed= 21049.35 sec

 Numerical MULTI000 hessian completed. CPU-time: 20945.33 sec, Elapsed: 21049.35 sec

 MULTI hessian saved to record  5300.2

 FREQUENCIES * CALCULATION OF HARMONIC VIBRATIONAL SPECTRA FOR MULTI


 Permanent Dipole Moment [debye]
   1-  3    0.000000    0.000000    0.000000

 Dipole Moment Norm    0.0000000 [debye]

 Dipole Moment Derivatives [debye/ang]
                   1             2             3             4             5             6             7             8
         1     0.2603555    -0.1385718     0.0000000     0.2603555     0.1385718     0.0000000     0.2603555    -0.1385718
         2     0.7288460     0.0100828     0.0000000    -0.7288460     0.0100828     0.0000000     0.7288460     0.0100828
         3    -0.0000003     0.0000000    -0.7891137    -0.0000003     0.0000000    -0.7891137     0.0000003     0.0000000
                   9            10            11            12            13            14            15            16
         1     0.0000000     0.2603555     0.1385718     0.0000000    -0.2604558    -0.3944887     0.0000000    -0.2604558
         2     0.0000000    -0.7288460     0.0100828     0.0000000    -0.5027088    -0.0098123     0.0000000     0.5027088
         3    -0.7891137     0.0000003     0.0000000    -0.7891137     0.0000001     0.0000000     0.7891701     0.0000001
                  17            18            19            20            21            22            23            24
         1     0.3944887     0.0000000    -0.2604558    -0.3944887     0.0000000    -0.2604558     0.3944887     0.0000000
         2    -0.0098123     0.0000000    -0.5027088    -0.0098123     0.0000000     0.5027088    -0.0098123     0.0000000
         3     0.0000000     0.7891701    -0.0000001     0.0000000     0.7891701    -0.0000001     0.0000000     0.7891701

 Projecting out rotations and translations

 Force Constants (Second Derivatives of the Energy) in [a.u.]
                             GX1         GY1         GZ1         GX2         GY2     
           GX1           0.1437047
           GY1           0.1378173   0.9693919
           GZ1          -0.0000001   0.0000000   0.0454384
           GX2           0.0555915   0.0434182   0.0000001   0.1437047
           GY2          -0.0434182  -0.6416161   0.0000000  -0.1378173   0.9693919
           GZ2           0.0000001   0.0000000  -0.0307079  -0.0000001   0.0000001
           GX3          -0.0050837   0.0159966   0.0000001  -0.0505675   0.0366755
           GY3           0.0159966  -0.0403971   0.0000000  -0.0366755   0.0328412
           GZ3          -0.0000001   0.0000000   0.0088096   0.0000001   0.0000000
           GX4          -0.0505675  -0.0366755  -0.0000001  -0.0050837  -0.0159966
           GY4           0.0366755   0.0328412   0.0000000  -0.0159966  -0.0403971
           GZ4           0.0000001   0.0000000  -0.0192547   0.0000000  -0.0000001
           GX5          -0.1368308  -0.1540772   0.0000000  -0.0035738   0.0111228
           GY5          -0.1587637  -0.3211007   0.0000000  -0.0132110   0.0035249
           GZ5           0.0000001   0.0000000  -0.0017775  -0.0000001   0.0000000
           GX6          -0.0035738  -0.0111228   0.0000000  -0.1368308   0.1540772
           GY6           0.0132110   0.0035249   0.0000000   0.1587637  -0.3211007
           GZ6          -0.0000001   0.0000000  -0.0080846   0.0000001   0.0000000
           GX7          -0.0073777  -0.0124826   0.0000000   0.0041371  -0.0171260
           GY7           0.0000417  -0.0052710   0.0000000   0.0015602   0.0026268
           GZ7           0.0000000   0.0000000   0.0161209  -0.0000001   0.0000000
           GX8           0.0041371   0.0171260   0.0000000  -0.0073777   0.0124826
           GY8          -0.0015602   0.0026268   0.0000000  -0.0000417  -0.0052710
           GZ8          -0.0000001   0.0000000  -0.0105442   0.0000000   0.0000000
                             GZ2         GX3         GY3         GZ3         GX4     
           GZ2           0.0454384
           GX3          -0.0000001   0.1437047
           GY3           0.0000000   0.1378173   0.9693919
           GZ3          -0.0192547   0.0000001   0.0000000   0.0454384
           GX4           0.0000000   0.0555915   0.0434182  -0.0000001   0.1437047
           GY4           0.0000001  -0.0434182  -0.6416161   0.0000000  -0.1378173
           GZ4           0.0088096  -0.0000001   0.0000000  -0.0307079   0.0000001
           GX5           0.0000000  -0.0073777  -0.0124826   0.0000000   0.0041371
           GY5           0.0000000   0.0000417  -0.0052710   0.0000000   0.0015602
           GZ5          -0.0080846   0.0000000   0.0000000   0.0161209   0.0000001
           GX6           0.0000001   0.0041371   0.0171260   0.0000000  -0.0073777
           GY6          -0.0000001  -0.0015602   0.0026268   0.0000000  -0.0000417
           GZ6          -0.0017775   0.0000001   0.0000000  -0.0105442   0.0000000
           GX7           0.0000000  -0.1368308  -0.1540772   0.0000000  -0.0035738
           GY7           0.0000000  -0.1587637  -0.3211007   0.0000000  -0.0132110
           GZ7          -0.0105442  -0.0000001   0.0000000  -0.0017775   0.0000001
           GX8           0.0000000  -0.0035738  -0.0111228   0.0000000  -0.1368308
           GY8          -0.0000001   0.0132110   0.0035249   0.0000000   0.1587637
           GZ8           0.0161209   0.0000001   0.0000000  -0.0080846  -0.0000001
                             GY4         GZ4         GX5         GY5         GZ5     
           GY4           0.9693919
           GZ4          -0.0000001   0.0454384
           GX5          -0.0171260   0.0000000   0.1456170
           GY5           0.0026268   0.0000000   0.1722141   0.3204719
           GZ5           0.0000000  -0.0105442  -0.0000001  -0.0000001  -0.0049838
           GX6           0.0124826   0.0000000   0.0019572  -0.0002172   0.0000000
           GY6          -0.0052710   0.0000001   0.0002172  -0.0002205   0.0000000
           GZ6           0.0000000   0.0161209   0.0000000   0.0000000   0.0118604
           GX7           0.0111228   0.0000000  -0.0009016  -0.0007463   0.0000000
           GY7           0.0035249   0.0000000  -0.0007463   0.0007554   0.0000000
           GZ7           0.0000000  -0.0080846   0.0000000   0.0000000  -0.0140275
           GX8           0.1540772  -0.0000001  -0.0030275  -0.0008779   0.0000000
           GY8          -0.3211007   0.0000001   0.0008779  -0.0007869   0.0000000
           GZ8           0.0000000  -0.0017775   0.0000000   0.0000000   0.0114363
                             GX6         GY6         GZ6         GX7         GY7     
           GX6           0.1456170
           GY6          -0.1722141   0.3204719
           GZ6          -0.0000001   0.0000000  -0.0049838
           GX7          -0.0030275   0.0008779   0.0000000   0.1456170
           GY7          -0.0008779  -0.0007869   0.0000000   0.1722141   0.3204719
           GZ7           0.0000000   0.0000000   0.0114363   0.0000001   0.0000001
           GX8          -0.0009016   0.0007463   0.0000000   0.0019572  -0.0002172
           GY8           0.0007463   0.0007554   0.0000000   0.0002172  -0.0002205
           GZ8           0.0000000   0.0000000  -0.0140275   0.0000000   0.0000000
                             GZ7         GX8         GY8         GZ8     
           GZ7          -0.0049838
           GX8           0.0000000   0.1456170
           GY8           0.0000000  -0.1722141   0.3204719
           GZ8           0.0118604   0.0000001   0.0000000  -0.0049838


 Atomic Masses
   1-  8   12.011000   12.011000   12.011000   12.011000    1.007940    1.007940    1.007940    1.007940

 Mass weighted Second Derivative Matrix
                             GX1         GY1         GZ1         GX2         GY2     
           GX1           0.0119644
           GY1           0.0114743   0.0807087
           GZ1           0.0000000   0.0000000   0.0037831
           GX2           0.0046284   0.0036149   0.0000000   0.0119644
           GY2          -0.0036149  -0.0534190   0.0000000  -0.0114743   0.0807087
           GZ2           0.0000000   0.0000000  -0.0025566   0.0000000   0.0000000
           GX3          -0.0004233   0.0013318   0.0000000  -0.0042101   0.0030535
           GY3           0.0013318  -0.0033633   0.0000000  -0.0030535   0.0027343
           GZ3           0.0000000   0.0000000   0.0007335   0.0000000   0.0000000
           GX4          -0.0042101  -0.0030535   0.0000000  -0.0004233  -0.0013318
           GY4           0.0030535   0.0027343   0.0000000  -0.0013318  -0.0033633
           GZ4           0.0000000   0.0000000  -0.0016031   0.0000000   0.0000000
           GX5          -0.0393257  -0.0442824   0.0000000  -0.0010271   0.0031967
           GY5          -0.0456294  -0.0922857   0.0000000  -0.0037969   0.0010131
           GZ5           0.0000000   0.0000000  -0.0005109   0.0000000   0.0000000
           GX6          -0.0010271  -0.0031967   0.0000000  -0.0393257   0.0442824
           GY6           0.0037969   0.0010131   0.0000000   0.0456294  -0.0922857
           GZ6           0.0000000   0.0000000  -0.0023235   0.0000000   0.0000000
           GX7          -0.0021204  -0.0035875   0.0000000   0.0011890  -0.0049221
           GY7           0.0000120  -0.0015149   0.0000000   0.0004484   0.0007549
           GZ7           0.0000000   0.0000000   0.0046332   0.0000000   0.0000000
           GX8           0.0011890   0.0049221   0.0000000  -0.0021204   0.0035875
           GY8          -0.0004484   0.0007549   0.0000000  -0.0000120  -0.0015149
           GZ8           0.0000000   0.0000000  -0.0030304   0.0000000   0.0000000
                             GZ2         GX3         GY3         GZ3         GX4     
           GZ2           0.0037831
           GX3           0.0000000   0.0119644
           GY3           0.0000000   0.0114743   0.0807087
           GZ3          -0.0016031   0.0000000   0.0000000   0.0037831
           GX4           0.0000000   0.0046284   0.0036149   0.0000000   0.0119644
           GY4           0.0000000  -0.0036149  -0.0534190   0.0000000  -0.0114743
           GZ4           0.0007335   0.0000000   0.0000000  -0.0025566   0.0000000
           GX5           0.0000000  -0.0021204  -0.0035875   0.0000000   0.0011890
           GY5           0.0000000   0.0000120  -0.0015149   0.0000000   0.0004484
           GZ5          -0.0023235   0.0000000   0.0000000   0.0046332   0.0000000
           GX6           0.0000000   0.0011890   0.0049221   0.0000000  -0.0021204
           GY6           0.0000000  -0.0004484   0.0007549   0.0000000  -0.0000120
           GZ6          -0.0005109   0.0000000   0.0000000  -0.0030304   0.0000000
           GX7           0.0000000  -0.0393257  -0.0442824   0.0000000  -0.0010271
           GY7           0.0000000  -0.0456294  -0.0922857   0.0000000  -0.0037969
           GZ7          -0.0030304   0.0000000   0.0000000  -0.0005109   0.0000000
           GX8           0.0000000  -0.0010271  -0.0031967   0.0000000  -0.0393257
           GY8           0.0000000   0.0037969   0.0010131   0.0000000   0.0456294
           GZ8           0.0046332   0.0000000   0.0000000  -0.0023235   0.0000000
                             GY4         GZ4         GX5         GY5         GZ5     
           GY4           0.0807087
           GZ4           0.0000000   0.0037831
           GX5          -0.0049221   0.0000000   0.1444699
           GY5           0.0007549   0.0000000   0.1708575   0.3179474
           GZ5           0.0000000  -0.0030304  -0.0000001  -0.0000001  -0.0049445
           GX6           0.0035875   0.0000000   0.0019418  -0.0002155   0.0000000
           GY6          -0.0015149   0.0000000   0.0002155  -0.0002188   0.0000000
           GZ6           0.0000000   0.0046332   0.0000000   0.0000000   0.0117670
           GX7           0.0031967   0.0000000  -0.0008945  -0.0007404   0.0000000
           GY7           0.0010131   0.0000000  -0.0007404   0.0007495   0.0000000
           GZ7           0.0000000  -0.0023235   0.0000000   0.0000000  -0.0139170
           GX8           0.0442824   0.0000000  -0.0030037  -0.0008710   0.0000000
           GY8          -0.0922857   0.0000000   0.0008710  -0.0007807   0.0000000
           GZ8           0.0000000  -0.0005109   0.0000000   0.0000000   0.0113462
                             GX6         GY6         GZ6         GX7         GY7     
           GX6           0.1444699
           GY6          -0.1708575   0.3179474
           GZ6          -0.0000001   0.0000000  -0.0049445
           GX7          -0.0030037   0.0008710   0.0000000   0.1444699
           GY7          -0.0008710  -0.0007807   0.0000000   0.1708575   0.3179474
           GZ7           0.0000000   0.0000000   0.0113462   0.0000001   0.0000001
           GX8          -0.0008945   0.0007404   0.0000000   0.0019418  -0.0002155
           GY8           0.0007404   0.0007495   0.0000000   0.0002155  -0.0002188
           GZ8           0.0000000   0.0000000  -0.0139170   0.0000000   0.0000000
                             GZ7         GX8         GY8         GZ8     
           GZ7          -0.0049445
           GX8           0.0000000   0.1444699
           GY8           0.0000000  -0.1708575   0.3179474
           GZ8           0.0117670   0.0000001   0.0000000  -0.0049445


 Mass Weighted 2nd Derivative Matrix Eigenvalues
   1- 10   -0.043690   -0.007881   -0.001125    0.000000    0.000000    0.000000    0.000000    0.000000    0.000000    0.004608
  11- 20    0.010057    0.010391    0.011489    0.012555    0.040718    0.042936    0.044613    0.048137    0.096362    0.107694
  21- 24    0.449390    0.456630    0.465120    0.467711

 Mass Weighted 2nd Derivative Matrix Eigenvectors
                   1             2             3             4             5             6             7             8
         1    -0.0000006     0.4016688     0.4711205    -0.0500213    -0.1324022     0.0365609     0.0091067    -0.0105585
         2     0.0000000     0.2734422     0.0070651     0.5586185     0.1545708    -0.0575825    -0.0459095     0.0168341
         3    -0.0890359     0.0000002     0.0000000     0.0786865    -0.0304092     0.1061046     0.5885637    -0.4896884
         4     0.0000006    -0.4016688    -0.4711205     0.3065232    -0.3907763     0.0582917    -0.0431944     0.0216359
         5     0.0000000     0.2734422     0.0070651     0.5586185     0.1545708    -0.0575825    -0.0459095     0.0168341
         6     0.0890359    -0.0000002    -0.0000001     0.0335187    -0.0960552    -0.3971720     0.6423710     0.1567939
         7     0.0000006    -0.4016688     0.4711205     0.3065232    -0.3907763     0.0582917    -0.0431944     0.0216359
         8     0.0000000    -0.2734422     0.0070651     0.1065256     0.4821851    -0.0851368     0.0204075    -0.0239878
         9    -0.0890359     0.0000002     0.0000000     0.0122598     0.0541708     0.2260641     0.2860027     0.6850357
        10    -0.0000006     0.4016688    -0.4711205    -0.0500213    -0.1324022     0.0365609     0.0091067    -0.0105585
        11     0.0000000    -0.2734422     0.0070651     0.1065256     0.4821851    -0.0851368     0.0204075    -0.0239878
        12     0.0890359    -0.0000002     0.0000001     0.0574276     0.1198168     0.7293407     0.2321954     0.0385534
        13     0.0000006     0.0211895     0.1655317    -0.0848194     0.0126096     0.0063047     0.0129546    -0.0094091
        14    -0.0000003     0.1159417    -0.0243887     0.2031218     0.0148501    -0.0141638    -0.0193573     0.0086056
        15     0.4920087     0.0000006    -0.0000001     0.0336457    -0.0095832     0.0730778     0.1924387    -0.3176293
        16    -0.0000006    -0.0211895    -0.1655317     0.1591245    -0.1641672     0.0211728    -0.0228293     0.0126180
        17    -0.0000003     0.1159417    -0.0243887     0.2031218     0.0148501    -0.0141639    -0.0193573     0.0086057
        18    -0.4920087    -0.0000006     0.0000001     0.0027425    -0.0544975    -0.2712586     0.2292531     0.1246868
        19    -0.0000006    -0.0211895     0.1655317     0.1591245    -0.1641672     0.0211727    -0.0228293     0.0126180
        20     0.0000003    -0.1159417    -0.0243887    -0.0104387     0.1696093    -0.0271799     0.0119697    -0.0106780
        21     0.4920087     0.0000006     0.0000001    -0.0072999     0.0164666     0.0231469     0.0609111     0.3742188
        22     0.0000006     0.0211895    -0.1655317    -0.0848194     0.0126096     0.0063048     0.0129545    -0.0094090
        23     0.0000003    -0.1159417    -0.0243887    -0.0104388     0.1696092    -0.0271800     0.0119697    -0.0106779
        24    -0.4920087    -0.0000006    -0.0000001     0.0236034     0.0613809     0.3674833     0.0240967    -0.0680974
                   9            10            11            12            13            14            15            16
         1     0.5309128     0.0000015     0.4833488    -0.0000002     0.0000000     0.0000001    -0.1117068    -0.1033175
         2    -0.0775714     0.0000000    -0.0122439    -0.0000002     0.0000000     0.0000000    -0.0900647    -0.0496417
         3    -0.0273110    -0.1391232     0.0000004     0.4920087    -0.2135622    -0.2823359    -0.0000001     0.0000000
         4     0.2259150     0.0000015     0.4833488     0.0000002     0.0000000    -0.0000001    -0.1117068    -0.1033175
         5    -0.0775714     0.0000000     0.0122439    -0.0000002     0.0000000     0.0000000     0.0900647     0.0496417
         6    -0.0013461    -0.1391232     0.0000004    -0.4920087    -0.2135622     0.2823359    -0.0000001     0.0000000
         7     0.2259150    -0.0000015    -0.4833488     0.0000002     0.0000000     0.0000001    -0.1117068     0.1033175
         8     0.3091611     0.0000000     0.0122439     0.0000002     0.0000000     0.0000000    -0.0900647     0.0496417
         9     0.0078146    -0.1391232     0.0000004     0.4920087     0.2135622     0.2823359     0.0000001     0.0000000
        10     0.5309128    -0.0000015    -0.4833488    -0.0000002     0.0000000    -0.0000001    -0.1117068     0.1033175
        11     0.3091611     0.0000000    -0.0122439     0.0000002     0.0000000     0.0000000     0.0900647    -0.0496417
        12    -0.0181503    -0.1391232     0.0000004    -0.4920087     0.2135622    -0.2823359     0.0000001     0.0000000
        13     0.2139594     0.0000004     0.1273263    -0.0000001    -0.0000001    -0.0000001     0.3856132     0.3951892
        14    -0.0577986     0.0000001     0.0034761     0.0000000     0.0000002     0.0000002    -0.2840993    -0.2840541
        15    -0.0138701     0.4802549    -0.0000015     0.0890359     0.4520964     0.4126577     0.0000002     0.0000001
        16     0.0052832     0.0000004     0.1273263     0.0000001    -0.0000001     0.0000001     0.3856132     0.3951892
        17    -0.0577986    -0.0000001    -0.0034761     0.0000000    -0.0000002     0.0000002     0.2840993     0.2840541
        18     0.0038949     0.4802549    -0.0000015    -0.0890359     0.4520964    -0.4126577     0.0000002     0.0000001
        19     0.0052832    -0.0000004    -0.1273263     0.0000001    -0.0000001    -0.0000001     0.3856132    -0.3951892
        20     0.1248869    -0.0000001    -0.0034761     0.0000000     0.0000002     0.0000002    -0.2840993     0.2840541
        21     0.0082222     0.4802549    -0.0000015     0.0890359    -0.4520964    -0.4126577    -0.0000002     0.0000001
        22     0.2139594    -0.0000004    -0.1273263    -0.0000001    -0.0000001     0.0000001     0.3856132    -0.3951892
        23     0.1248869     0.0000001     0.0034761     0.0000000    -0.0000002     0.0000002     0.2840993    -0.2840541
        24    -0.0095427     0.4802549    -0.0000015    -0.0890359    -0.4520964     0.4126577    -0.0000002     0.0000001
                  17            18            19            20            21            22            23            24
         1    -0.1540367    -0.1113525    -0.0440885    -0.0215405    -0.0589535    -0.0657126    -0.0702357    -0.0723566
         2     0.0722408     0.2152264     0.4681823     0.4736153    -0.1089988    -0.1186871    -0.1506443    -0.1519023
         3    -0.0000002     0.0000002     0.0000000     0.0000000     0.0000000     0.0000000     0.0000000     0.0000000
         4     0.1540367     0.1113525    -0.0440885    -0.0215405     0.0589535     0.0657126    -0.0702357    -0.0723566
         5     0.0722408     0.2152264    -0.4681823    -0.4736153    -0.1089988    -0.1186871     0.1506443     0.1519023
         6     0.0000001    -0.0000002     0.0000000     0.0000000     0.0000000    -0.0000001     0.0000001     0.0000000
         7    -0.1540367     0.1113525    -0.0440885     0.0215405     0.0589535    -0.0657126    -0.0702357     0.0723566
         8     0.0722408    -0.2152264     0.4681823    -0.4736153     0.1089988    -0.1186871    -0.1506443     0.1519023
         9     0.0000002     0.0000002     0.0000000     0.0000000     0.0000000     0.0000000     0.0000000     0.0000000
        10     0.1540367    -0.1113525    -0.0440885     0.0215405    -0.0589535     0.0657126    -0.0702357     0.0723566
        11     0.0722408    -0.2152264    -0.4681823     0.4736153     0.1089988    -0.1186871     0.1506443    -0.1519023
        12    -0.0000001    -0.0000002     0.0000000     0.0000000     0.0000000     0.0000001    -0.0000001     0.0000000
        13     0.3985795     0.3922140     0.1521940     0.1246268     0.2482869     0.2524553     0.2424546     0.2491620
        14    -0.2493759    -0.1935106     0.0754887     0.0984516     0.4159295     0.4097091     0.4044614     0.3995103
        15     0.0000001    -0.0000007     0.0000000    -0.0000001    -0.0000001    -0.0000001    -0.0000001    -0.0000001
        16    -0.3985795    -0.3922140     0.1521940     0.1246268    -0.2482869    -0.2524553     0.2424546     0.2491620
        17    -0.2493759    -0.1935106    -0.0754887    -0.0984516     0.4159295     0.4097091    -0.4044614    -0.3995103
        18    -0.0000002     0.0000007     0.0000000    -0.0000001     0.0000001     0.0000001     0.0000000    -0.0000001
        19     0.3985795    -0.3922140     0.1521940    -0.1246268    -0.2482869     0.2524553     0.2424546    -0.2491620
        20    -0.2493759     0.1935106     0.0754887    -0.0984516    -0.4159295     0.4097091     0.4044614    -0.3995103
        21    -0.0000001    -0.0000007     0.0000000    -0.0000001    -0.0000001     0.0000001     0.0000001    -0.0000001
        22    -0.3985795     0.3922140     0.1521940    -0.1246268     0.2482869    -0.2524553     0.2424546    -0.2491620
        23    -0.2493759     0.1935106    -0.0754887     0.0984516    -0.4159295     0.4097091    -0.4044614     0.3995103
        24     0.0000002     0.0000007     0.0000000    -0.0000001     0.0000001    -0.0000001     0.0000000    -0.0000001

 Imaginary Vibration  Wavenumber
        Nr             [1/cm] 
        1             1074.46
        2              456.33
        3              172.39

   Low Vibration      Wavenumber
        Nr             [1/cm] 
        1                0.00
        2                0.00
        3                0.00
        4                0.00
        5                0.00
        6                0.00

     Vibration        Wavenumber
        Nr             [1/cm] 
        1              348.96
        2              515.51
        3              524.00
        4              550.99
        5              575.98
        6             1037.27
        7             1065.15
        8             1085.75
        9             1127.82
       10             1595.71
       11             1686.93
       12             3445.98
       13             3473.63
       14             3505.77
       15             3515.52

 FREQUENCIES * CALCULATION OF NORMAL MODES FOR MULTI


 Atomic Coordinates

  Nr  Atom  Charge       X              Y              Z

   1   C     6.00    1.615706292    1.274232053    0.000000000
   2   C     6.00    1.615706292   -1.274232053    0.000000000
   3   C     6.00   -1.615706292   -1.274232053    0.000000000
   4   C     6.00   -1.615706292    1.274232053    0.000000000
   5   H     1.00    2.634680677    3.009517903   -0.000000662
   6   H     1.00    2.634680677   -3.009517903    0.000000662
   7   H     1.00   -2.634680677   -3.009517903   -0.000000662
   8   H     1.00   -2.634680677    3.009517903    0.000000662

 Frequencies dumped to record   5400.2

 Gradient norm at reference geometry: 0.53311D+00

 ?WARNING: GRADIENT NORM NOT ZERO!

 Normal Modes

                              1 B1        2 A         3 A         4 B2        5 B3 
 Wavenumbers [cm-1]          348.96      515.51      524.00      550.99      575.98
 Intensities [km/mol]        113.22        0.00        0.00        0.00        0.00
 Intensities [relative]      100.00        0.00        0.00        0.00        0.00
           GX1              0.00000     0.13947     0.00000     0.00000     0.00000
           GY1              0.00000    -0.00353     0.00000     0.00000     0.00000
           GZ1             -0.04014     0.00000     0.14197    -0.06162    -0.08147
           GX2              0.00000     0.13947     0.00000     0.00000     0.00000
           GY2              0.00000     0.00353     0.00000     0.00000     0.00000
           GZ2             -0.04014     0.00000    -0.14197    -0.06162     0.08147
           GX3              0.00000    -0.13947     0.00000     0.00000     0.00000
           GY3              0.00000     0.00353     0.00000     0.00000     0.00000
           GZ3             -0.04014     0.00000     0.14197     0.06162     0.08147
           GX4              0.00000    -0.13947     0.00000     0.00000     0.00000
           GY4              0.00000    -0.00353     0.00000     0.00000     0.00000
           GZ4             -0.04014     0.00000    -0.14197     0.06162    -0.08147
           GX5              0.00000     0.12682     0.00000     0.00000     0.00000
           GY5              0.00000     0.00346     0.00000     0.00000     0.00000
           GZ5              0.47836     0.00000     0.08868     0.45031     0.41103
           GX6              0.00000     0.12682     0.00000     0.00000     0.00000
           GY6              0.00000    -0.00346     0.00000     0.00000     0.00000
           GZ6              0.47836     0.00000    -0.08868     0.45031    -0.41103
           GX7              0.00000    -0.12682     0.00000     0.00000     0.00000
           GY7              0.00000    -0.00346     0.00000     0.00000     0.00000
           GZ7              0.47836     0.00000     0.08868    -0.45031    -0.41103
           GX8              0.00000    -0.12682     0.00000     0.00000     0.00000
           GY8              0.00000     0.00346     0.00000     0.00000     0.00000
           GZ8              0.47836     0.00000    -0.08868    -0.45031     0.41103

                              6 B3        7 A         8 B2        9 B1       10 B3 
 Wavenumbers [cm-1]         1037.27     1065.15     1085.75     1127.82     1595.71
 Intensities [km/mol]          0.03        0.00       35.56        0.00        5.62
 Intensities [relative]        0.03        0.00       31.41        0.00        4.97
           GX1             -0.03223    -0.02981    -0.04445    -0.03213    -0.01272
           GY1             -0.02599    -0.01432     0.02084     0.06210     0.13509
           GZ1              0.00000     0.00000     0.00000     0.00000     0.00000
           GX2             -0.03223    -0.02981     0.04445     0.03213    -0.01272
           GY2              0.02599     0.01432     0.02084     0.06210    -0.13509
           GZ2              0.00000     0.00000     0.00000     0.00000     0.00000
           GX3             -0.03223     0.02981    -0.04445     0.03213    -0.01272
           GY3             -0.02599     0.01432     0.02084    -0.06210     0.13509
           GZ3              0.00000     0.00000     0.00000     0.00000     0.00000
           GX4             -0.03223     0.02981     0.04445    -0.03213    -0.01272
           GY4              0.02599    -0.01432     0.02084    -0.06210    -0.13509
           GZ4              0.00000     0.00000     0.00000     0.00000     0.00000
           GX5              0.38409     0.39363     0.39701     0.39067     0.15159
           GY5             -0.28298    -0.28293    -0.24839    -0.19275     0.07519
           GZ5              0.00000     0.00000     0.00000     0.00000     0.00000
           GX6              0.38409     0.39363    -0.39701    -0.39067     0.15159
           GY6              0.28298     0.28293    -0.24839    -0.19275    -0.07519
           GZ6              0.00000     0.00000     0.00000     0.00000     0.00000
           GX7              0.38409    -0.39363     0.39701    -0.39067     0.15159
           GY7             -0.28298     0.28293    -0.24839     0.19275     0.07519
           GZ7              0.00000     0.00000     0.00000     0.00000     0.00000
           GX8              0.38409    -0.39363    -0.39701     0.39067     0.15159
           GY8              0.28298    -0.28293    -0.24839     0.19275    -0.07519
           GZ8              0.00000     0.00000     0.00000     0.00000     0.00000

                             11 A        12 B1       13 B2       14 B3       15 A  
 Wavenumbers [cm-1]         1686.93     3445.98     3473.63     3505.77     3515.52
 Intensities [km/mol]          0.00        0.00       14.13       33.05        0.00
 Intensities [relative]        0.00        0.00       12.48       29.19        0.00
           GX1             -0.00622    -0.01701    -0.01896    -0.02027    -0.02088
           GY1              0.13666    -0.03145    -0.03425    -0.04347    -0.04383
           GZ1              0.00000     0.00000     0.00000     0.00000     0.00000
           GX2             -0.00622     0.01701     0.01896    -0.02027    -0.02088
           GY2             -0.13666    -0.03145    -0.03425     0.04347     0.04383
           GZ2              0.00000     0.00000     0.00000     0.00000     0.00000
           GX3              0.00622     0.01701    -0.01896    -0.02027     0.02088
           GY3             -0.13666     0.03145    -0.03425    -0.04347     0.04383
           GZ3              0.00000     0.00000     0.00000     0.00000     0.00000
           GX4              0.00622    -0.01701     0.01896    -0.02027     0.02088
           GY4              0.13666     0.03145    -0.03425     0.04347    -0.04383
           GZ4              0.00000     0.00000     0.00000     0.00000     0.00000
           GX5              0.12413     0.24731     0.25146     0.24150     0.24818
           GY5              0.09806     0.41429     0.40809     0.40287     0.39793
           GZ5              0.00000     0.00000     0.00000     0.00000     0.00000
           GX6              0.12413    -0.24731    -0.25146     0.24150     0.24818
           GY6             -0.09806     0.41429     0.40809    -0.40287    -0.39793
           GZ6              0.00000     0.00000     0.00000     0.00000     0.00000
           GX7             -0.12413    -0.24731     0.25146     0.24150    -0.24818
           GY7             -0.09806    -0.41429     0.40809     0.40287    -0.39793
           GZ7              0.00000     0.00000     0.00000     0.00000     0.00000
           GX8             -0.12413     0.24731    -0.25146     0.24150    -0.24818
           GY8              0.09806    -0.41429     0.40809    -0.40287     0.39793
           GZ8              0.00000     0.00000     0.00000     0.00000     0.00000


 Normal Modes of imaginary frequencies

                                  1           2           3
 Wavenumbers [cm-1]         1074.46      456.33      172.39
 Intensities [km/mol]          0.00        0.00        0.18
 Intensities [relative]        0.00        0.00        0.16
           GX1              0.00000     0.11590     0.13594
           GY1              0.00000     0.07890     0.00204
           GZ1             -0.02569     0.00000     0.00000
           GX2              0.00000    -0.11590    -0.13594
           GY2              0.00000     0.07890     0.00204
           GZ2              0.02569     0.00000     0.00000
           GX3              0.00000    -0.11590     0.13594
           GY3              0.00000    -0.07890     0.00204
           GZ3             -0.02569     0.00000     0.00000
           GX4              0.00000     0.11590    -0.13594
           GY4              0.00000    -0.07890     0.00204
           GZ4              0.02569     0.00000     0.00000
           GX5              0.00000     0.02111     0.16488
           GY5              0.00000     0.11548    -0.02429
           GZ5              0.49007     0.00000     0.00000
           GX6              0.00000    -0.02111    -0.16488
           GY6              0.00000     0.11548    -0.02429
           GZ6             -0.49007     0.00000     0.00000
           GX7              0.00000    -0.02111     0.16488
           GY7              0.00000    -0.11548    -0.02429
           GZ7              0.49007     0.00000     0.00000
           GX8              0.00000     0.02111    -0.16488
           GY8              0.00000    -0.11548    -0.02429
           GZ8             -0.49007     0.00000     0.00000


 Normal Modes of low/zero frequencies

                                  1           2           3           4           5
 Wavenumbers [cm-1]            0.00        0.00        0.00        0.00        0.00
 Intensities [km/mol]          0.00        0.00        0.00        0.00        0.00
 Intensities [relative]        0.00        0.00        0.00        0.00        0.00
           GX1             -0.01443    -0.03820     0.01055     0.00263    -0.00305
           GY1              0.16119     0.04460    -0.01662    -0.01325     0.00486
           GZ1              0.02270    -0.00877     0.03062     0.16983    -0.14130
           GX2              0.08845    -0.11276     0.01682    -0.01246     0.00624
           GY2              0.16119     0.04460    -0.01662    -0.01325     0.00486
           GZ2              0.00967    -0.02772    -0.11460     0.18535     0.04524
           GX3              0.08845    -0.11276     0.01682    -0.01246     0.00624
           GY3              0.03074     0.13913    -0.02457     0.00589    -0.00692
           GZ3              0.00354     0.01563     0.06523     0.08252     0.19766
           GX4             -0.01443    -0.03820     0.01055     0.00263    -0.00305
           GY4              0.03074     0.13913    -0.02457     0.00589    -0.00692
           GZ4              0.01657     0.03457     0.21045     0.06700     0.01112
           GX5             -0.08448     0.01256     0.00628     0.01290    -0.00937
           GY5              0.20232     0.01479    -0.01411    -0.01928     0.00857
           GZ5              0.03351    -0.00955     0.07279     0.19168    -0.31638
           GX6              0.15850    -0.16352     0.02109    -0.02274     0.01257
           GY6              0.20232     0.01479    -0.01411    -0.01928     0.00857
           GZ6              0.00273    -0.05428    -0.27019     0.22835     0.12419
           GX7              0.15850    -0.16352     0.02109    -0.02274     0.01257
           GY7             -0.01040     0.16894    -0.02707     0.01192    -0.01064
           GZ7             -0.00727     0.01640     0.02306     0.06067     0.37274
           GX8             -0.08448     0.01256     0.00628     0.01290    -0.00937
           GY8             -0.01040     0.16894    -0.02707     0.01192    -0.01064
           GZ8              0.02351     0.06114     0.36603     0.02400    -0.06783

                                  6
 Wavenumbers [cm-1]            0.00
 Intensities [km/mol]          0.00
 Intensities [relative]        0.00
           GX1              0.15319
           GY1             -0.02238
           GZ1             -0.00788
           GX2              0.06519
           GY2             -0.02238
           GZ2             -0.00039
           GX3              0.06519
           GY3              0.08921
           GZ3              0.00225
           GX4              0.15319
           GY4              0.08921
           GZ4             -0.00524
           GX5              0.21311
           GY5             -0.05757
           GZ5             -0.01382
           GX6              0.00526
           GY6             -0.05757
           GZ6              0.00388
           GX7              0.00526
           GY7              0.12439
           GZ7              0.00819
           GX8              0.21311
           GY8              0.12439
           GZ8             -0.00951


 Zero point energy:  0.05480126 [H]    12027.49 [1/CM]      143.88 [KJ/MOL]
 Frequency information read from record  5400.2

 Recomputing wavefunction at initial geometry


 **********************************************************************************************************************************
 DATASETS  * FILE   NREC   LENGTH (MB)   RECORD NAMES
              1      22       19.04       500      610      700      701      900      950      970     1001      129      960   
                                          VAR    BASINP    GEOM     GEOM    SYMINP    ZMAT    AOBASIS   BASIS     P2S    ABASIS    
                                         1100     1400     1410     1200     1210     1080     1600     1650     1300     1700   
                                           S        T        V       H0       H01     AOSYM     SMH    MOLCAS    ERIS     OPER   
                                         1380     5101   
                                         JKOP    CPSAMC    

              2      10        1.02       700     1000     2100     2140      701     1001     2141     5300     5400     5450   
                                         GEOM     BASIS    MERGE    MCSCF    GEOM     BASIS    MCSCF    HESS     FREQ     NMOD   

 PROGRAMS   *        TOTAL      FREQ     FORCE     MULTI     MERGE        HF       INT
 CPU TIMES  *     23856.97  23696.14      0.57    159.76      0.01      0.06      0.34
 REAL TIME  *     24262.06 SEC
 DISK USED  *       910.00 MB      
 GA USED    *         0.00 MB       (max)       0.00 MB       (current)
 **********************************************************************************************************************************

        MULTI           HF-SCF  
   -153.56872046   -153.59687562
 **********************************************************************************************************************************
 Variable memory released
